title = Steepest decent energy minimization
integrator               = steep	; Algorithm
nsteps                   = 5000		; Number of steps
nstxout                  = 0		; Steps elapsed between writing coordinates, 0 means no writing
nstfout                  = 0		; same but for velocities
nstlog                   = 1 		; steps elapsed before writing energies to log	

cutoff-scheme            = Verlet
nstlist                  = 20
nsttcouple               = 20
nstpcouple               = 20
rlist                    = 1.35
verlet-buffer-tolerance  = -1
ns_type                  = grid
pbc                      = xyz

; older settings for M2.2
;cutoff-scheme            = Verlet
;nstlist                  = 20
;ns_type                  = grid
;pbc                      = xyz
;verlet-buffer-tolerance  = 0.005

coulombtype              = reaction-field
rcoulomb                 = 1.1
epsilon_r                = 15	; 2.5 (with polarizable water)
epsilon_rf               = 0
vdw_type                 = cutoff
vdw-modifier             = Potential-shift-verlet
rvdw                     = 1.1

; MARTINI and CONSTRAINTS
; for ring systems and stiff bonds constraints are defined
; which are best handled using Lincs.

constraints              = none
constraint_algorithm     = Lincs
lincs_order              = 8
lincs_warnangle          = 90
lincs_iter               = 2
